<?xml version="1.0" encoding="UTF-8"?>

<!-- generated on Thu May  4 22:07:32 2017 by SUMO sumo Version 0.19.0
<?xml version="1.0" encoding="UTF-8"?>

<configuration xmlns:xsi="http://www.w3.org/2001/XMLSchema-instance" xsi:noNamespaceSchemaLocation="http://sumo-sim.org/xsd/sumoConfiguration.xsd">

    <input>
        <net-file value="RandomGenerate.net.xml"/>
        <route-files value="targeted.rou.xml"/>
        <additional-files value="edgeDataDump.xml"/>
    </input>

    <output>
        <save-state.prefix value="state"/>
    </output>

    <time>
        <begin value="0"/>
        <end value="10000"/>
    </time>

</configuration>
-->

<meandata xmlns:xsi="http://www.w3.org/2001/XMLSchema-instance" xsi:noNamespaceSchemaLocation="http://sumo-sim.org/xsd/meandata_file.xsd">
    <interval begin="0.00" end="10000.00" id="1">
        <edge id="-1005" sampledSeconds="488.86" traveltime="10.49" density="0.38" occupancy="0.19" waitingTime="0.00" speed="12.15" departed="3" arrived="4" entered="42" left="41" laneChangedFrom="0" laneChangedTo="0"/>
        <edge id="-1011" sampledSeconds="169.69" traveltime="20.83" density="0.07" occupancy="0.04" waitingTime="5.00" speed="11.16" departed="1" arrived="2" entered="7" left="6" laneChangedFrom="0" laneChangedTo="0"/>
        <edge id="-1027" sampledSeconds="407.06" traveltime="19.05" density="0.18" occupancy="0.09" waitingTime="0.00" speed="11.59" departed="3" arrived="3" entered="18" left="18" laneChangedFrom="0" laneChangedTo="0"/>
        <edge id="-1029" sampledSeconds="878.13" traveltime="13.32" density="0.53" occupancy="0.27" waitingTime="0.00" speed="12.34" departed="2" arrived="5" entered="62" left="59" laneChangedFrom="0" laneChangedTo="0"/>
        <edge id="-1033" sampledSeconds="101.77" traveltime="8.99" density="0.10" occupancy="0.05" waitingTime="0.00" speed="11.17" departed="4" arrived="2" entered="7" left="9" laneChangedFrom="0" laneChangedTo="0"/>
        <edge id="-1057" sampledSeconds="443.19" traveltime="24.18" density="0.19" occupancy="0.10" waitingTime="47.00" speed="9.49" departed="3" arrived="0" entered="15" left="18" laneChangedFrom="0" laneChangedTo="0"/>
        <edge id="-1093" sampledSeconds="733.61" traveltime="14.52" density="0.46" occupancy="0.23" waitingTime="0.00" speed="10.96" departed="0" arrived="2" entered="49" left="47" laneChangedFrom="0" laneChangedTo="0"/>
        <edge id="-11" sampledSeconds="1415.95" traveltime="14.94" density="0.89" occupancy="0.44" waitingTime="10.00" speed="10.66" departed="3" arrived="3" entered="89" left="89" laneChangedFrom="0" laneChangedTo="0"/>
        <edge id="-116" sampledSeconds="162.42" traveltime="16.05" density="0.11" occupancy="0.05" waitingTime="4.00" speed="9.56" departed="5" arrived="3" entered="5" left="7" laneChangedFrom="0" laneChangedTo="0"/>
        <edge id="-117" sampledSeconds="1053.78" traveltime="8.62" density="0.97" occupancy="0.48" waitingTime="0.00" speed="12.65" departed="3" arrived="2" entered="114" left="115" laneChangedFrom="0" laneChangedTo="0"/>
        <edge id="-119" sampledSeconds="2304.69" traveltime="10.89" density="2.02" occupancy="1.01" waitingTime="20.00" speed="10.50" departed="3" arrived="4" entered="200" left="199" laneChangedFrom="0" laneChangedTo="0"/>
        <edge id="-1199" sampledSeconds="329.21" traveltime="7.88" density="0.33" occupancy="0.17" waitingTime="0.00" speed="12.59" departed="4" arrived="3" entered="36" left="37" laneChangedFrom="0" laneChangedTo="0"/>
        <edge id="-1201" sampledSeconds="564.89" traveltime="16.18" density="0.32" occupancy="0.16" waitingTime="2.00" speed="11.07" departed="1" arrived="2" entered="33" left="32" laneChangedFrom="0" laneChangedTo="0"/>
        <edge id="-121" sampledSeconds="952.09" traveltime="15.79" density="0.47" occupancy="0.24" waitingTime="2.00" speed="12.75" departed="6" arrived="6" entered="53" left="53" laneChangedFrom="0" laneChangedTo="0"/>
        <edge id="-123" sampledSeconds="2478.49" traveltime="14.71" density="1.71" occupancy="0.86" waitingTime="79.00" speed="9.83" departed="3" arrived="1" entered="160" left="162" laneChangedFrom="0" laneChangedTo="0"/>
        <edge id="-125" sampledSeconds="2295.89" traveltime="15.09" density="1.29" occupancy="0.65" waitingTime="0.00" speed="11.78" departed="1" arrived="0" entered="147" left="148" laneChangedFrom="0" laneChangedTo="0"/>
        <edge id="-126" sampledSeconds="127.69" traveltime="18.03" density="0.06" occupancy="0.03" waitingTime="0.00" speed="11.84" departed="3" arrived="3" entered="4" left="4" laneChangedFrom="0" laneChangedTo="0"/>
        <edge id="-128" sampledSeconds="1938.56" traveltime="10.33" density="1.92" occupancy="0.96" waitingTime="13.00" speed="9.79" departed="4" arrived="1" entered="175" left="178" laneChangedFrom="0" laneChangedTo="0"/>
        <edge id="-13" sampledSeconds="1017.05" traveltime="11.93" density="0.83" occupancy="0.41" waitingTime="3.00" speed="10.31" departed="2" arrived="6" entered="80" left="76" laneChangedFrom="0" laneChangedTo="0"/>
        <edge id="-1323" sampledSeconds="309.98" traveltime="20.43" density="0.13" occupancy="0.07" waitingTime="0.00" speed="11.38" departed="6" arrived="4" entered="9" left="11" laneChangedFrom="0" laneChangedTo="0"/>
        <edge id="-1342" sampledSeconds="692.76" traveltime="14.04" density="0.43" occupancy="0.21" waitingTime="0.00" speed="11.58" departed="4" arrived="1" entered="44" left="47" laneChangedFrom="0" laneChangedTo="0"/>
        <edge id="-1343" sampledSeconds="327.28" traveltime="11.36" density="0.23" occupancy="0.12" waitingTime="0.00" speed="12.32" departed="5" arrived="2" entered="23" left="26" laneChangedFrom="0" laneChangedTo="0"/>
        <edge id="-1345" sampledSeconds="800.93" traveltime="15.06" density="0.41" occupancy="0.21" waitingTime="0.00" speed="12.88" departed="5" arrived="7" entered="47" left="45" laneChangedFrom="0" laneChangedTo="0"/>
        <edge id="-1357" sampledSeconds="1669.68" traveltime="11.32" density="1.30" occupancy="0.65" waitingTime="0.00" speed="11.36" departed="2" arrived="6" entered="140" left="136" laneChangedFrom="0" laneChangedTo="0"/>
        <edge id="-1359" sampledSeconds="467.89" traveltime="19.11" density="0.21" occupancy="0.11" waitingTime="0.00" speed="11.61" departed="2" arrived="2" entered="22" left="22" laneChangedFrom="0" laneChangedTo="0"/>
        <edge id="-1363" sampledSeconds="322.75" traveltime="13.14" density="0.20" occupancy="0.10" waitingTime="0.00" speed="12.35" departed="5" arrived="5" entered="19" left="19" laneChangedFrom="0" laneChangedTo="0"/>
        <edge id="-1373" sampledSeconds="116.29" traveltime="19.05" density="0.05" occupancy="0.03" waitingTime="0.00" speed="11.60" departed="1" arrived="1" entered="5" left="5" laneChangedFrom="0" laneChangedTo="0"/>
        <edge id="-138" sampledSeconds="399.93" traveltime="17.02" density="0.20" occupancy="0.10" waitingTime="0.00" speed="11.96" departed="2" arrived="7" entered="21" left="16" laneChangedFrom="0" laneChangedTo="0"/>
        <edge id="-1388" sampledSeconds="834.42" traveltime="11.55" density="0.55" occupancy="0.27" waitingTime="0.00" speed="13.15" departed="2" arrived="1" entered="68" left="69" laneChangedFrom="0" laneChangedTo="0"/>
        <edge id="-1391" sampledSeconds="140.91" traveltime="13.76" density="0.10" occupancy="0.05" waitingTime="0.00" speed="10.40" departed="4" arrived="4" entered="6" left="6" laneChangedFrom="0" laneChangedTo="0"/>
        <edge id="-1396" sampledSeconds="113.17" traveltime="11.03" density="0.10" occupancy="0.05" waitingTime="0.00" speed="9.94" departed="3" arrived="2" entered="7" left="8" laneChangedFrom="0" laneChangedTo="0"/>
        <edge id="-1404" sampledSeconds="395.03" traveltime="10.35" density="0.30" occupancy="0.15" waitingTime="0.00" speed="12.54" departed="6" arrived="2" entered="31" left="35" laneChangedFrom="0" laneChangedTo="0"/>
        <edge id="-1415" sampledSeconds="2578.86" traveltime="16.70" density="1.21" occupancy="0.60" waitingTime="0.00" speed="12.79" departed="3" arrived="3" entered="148" left="148" laneChangedFrom="0" laneChangedTo="0"/>
        <edge id="-1425" sampledSeconds="397.95" traveltime="19.54" density="0.20" occupancy="0.10" waitingTime="25.00" speed="10.33" departed="3" arrived="5" entered="17" left="15" laneChangedFrom="0" laneChangedTo="0"/>
        <edge id="-1427" sampledSeconds="574.72" traveltime="13.00" density="0.34" occupancy="0.17" waitingTime="0.00" speed="13.03" departed="1" arrived="4" entered="42" left="39" laneChangedFrom="0" laneChangedTo="0"/>
        <edge id="-1429" sampledSeconds="483.55" traveltime="9.90" density="0.43" occupancy="0.21" waitingTime="0.00" speed="11.39" departed="6" arrived="4" entered="41" left="43" laneChangedFrom="0" laneChangedTo="0"/>
        <edge id="-1431" sampledSeconds="230.55" traveltime="11.22" density="0.17" occupancy="0.08" waitingTime="0.00" speed="12.19" departed="4" arrived="9" entered="16" left="11" laneChangedFrom="0" laneChangedTo="0"/>
        <edge id="-1441" sampledSeconds="422.51" traveltime="17.21" density="0.22" occupancy="0.11" waitingTime="1.00" speed="10.97" departed="3" arrived="2" entered="21" left="22" laneChangedFrom="0" laneChangedTo="0"/>
        <edge id="-1447" sampledSeconds="432.72" traveltime="19.29" density="0.20" occupancy="0.10" waitingTime="0.00" speed="11.46" departed="2" arrived="2" entered="20" left="20" laneChangedFrom="0" laneChangedTo="0"/>
        <edge id="-1464" sampledSeconds="554.59" traveltime="7.11" density="0.63" occupancy="0.31" waitingTime="0.00" speed="12.42" departed="3" arrived="2" entered="71" left="72" laneChangedFrom="0" laneChangedTo="0"/>
        <edge id="-1483" sampledSeconds="285.34" traveltime="9.77" density="0.26" occupancy="0.13" waitingTime="0.00" speed="11.43" departed="1" arrived="0" entered="27" left="28" laneChangedFrom="0" laneChangedTo="0"/>
        <edge id="-1493" sampledSeconds="443.17" traveltime="15.45" density="0.26" occupancy="0.13" waitingTime="4.00" speed="11.00" departed="4" arrived="3" entered="24" left="25" laneChangedFrom="0" laneChangedTo="0"/>
        <edge id="-1494" sampledSeconds="844.81" traveltime="16.21" density="0.41" occupancy="0.20" waitingTime="0.00" speed="12.86" departed="4" arrived="1" entered="47" left="50" laneChangedFrom="0" laneChangedTo="0"/>
        <edge id="-1499" sampledSeconds="303.30" traveltime="18.71" density="0.13" occupancy="0.07" waitingTime="0.00" speed="12.32" departed="5" arrived="4" entered="11" left="12" laneChangedFrom="0" laneChangedTo="0"/>
        <edge id="-15" sampledSeconds="2016.60" traveltime="11.55" density="1.40" occupancy="0.70" waitingTime="0.00" speed="12.48" departed="6" arrived="3" entered="163" left="166" laneChangedFrom="0" laneChangedTo="0"/>
        <edge id="-1501" sampledSeconds="327.82" traveltime="14.44" density="0.24" occupancy="0.12" waitingTime="26.00" speed="9.50" departed="2" arrived="3" entered="20" left="19" laneChangedFrom="0" laneChangedTo="0"/>
        <edge id="-1517" sampledSeconds="739.37" traveltime="16.76" density="0.44" occupancy="0.22" waitingTime="38.00" speed="9.94" departed="6" arrived="1" entered="37" left="42" laneChangedFrom="0" laneChangedTo="0"/>
        <edge id="-1523" sampledSeconds="983.30" traveltime="14.05" density="0.61" occupancy="0.31" waitingTime="0.00" speed="11.40" departed="3" arrived="4" entered="65" left="64" laneChangedFrom="0" laneChangedTo="0"/>
        <edge id="-1524" sampledSeconds="1097.70" traveltime="11.17" density="0.80" occupancy="0.40" waitingTime="7.00" speed="12.27" departed="5" arrived="2" entered="90" left="93" laneChangedFrom="0" laneChangedTo="0"/>
        <edge id="-1526" sampledSeconds="1089.83" traveltime="13.42" density="0.65" occupancy="0.33" waitingTime="0.00" speed="12.45" departed="4" arrived="4" entered="75" left="75" laneChangedFrom="0" laneChangedTo="0"/>
        <edge id="-1532" sampledSeconds="273.28" traveltime="19.27" density="0.12" occupancy="0.06" waitingTime="0.00" speed="11.78" departed="5" arrived="8" entered="9" left="6" laneChangedFrom="0" laneChangedTo="0"/>
        <edge id="-1533" sampledSeconds="1816.27" traveltime="15.20" density="1.13" occupancy="0.56" waitingTime="24.00" speed="10.59" departed="3" arrived="4" entered="113" left="112" laneChangedFrom="0" laneChangedTo="0"/>
        <edge id="-1535" sampledSeconds="900.11" traveltime="9.11" density="0.80" occupancy="0.40" waitingTime="0.00" speed="12.42" departed="7" arrived="3" entered="88" left="92" laneChangedFrom="0" laneChangedTo="0"/>
        <edge id="-17" sampledSeconds="2308.61" traveltime="16.48" density="1.08" occupancy="0.54" waitingTime="1.00" speed="12.96" departed="4" arrived="4" entered="133" left="133" laneChangedFrom="0" laneChangedTo="0"/>
        <edge id="-1767" sampledSeconds="2375.47" traveltime="19.36" density="1.09" occupancy="0.54" waitingTime="29.00" speed="11.27" departed="0" arrived="8" entered="120" left="112" laneChangedFrom="0" laneChangedTo="0"/>
        <edge id="-1769" sampledSeconds="142.37" traveltime="14.03" density="0.09" occupancy="0.04" waitingTime="0.00" speed="11.75" departed="5" arrived="2" entered="5" left="8" laneChangedFrom="0" laneChangedTo="0"/>
        <edge id="-1771" sampledSeconds="150.91" traveltime="18.68" density="0.07" occupancy="0.03" waitingTime="0.00" speed="11.86" departed="3" arrived="4" entered="5" left="4" laneChangedFrom="0" laneChangedTo="0"/>
        <edge id="-1773" sampledSeconds="138.57" traveltime="17.08" density="0.07" occupancy="0.03" waitingTime="0.00" speed="11.70" departed="3" arrived="5" entered="5" left="3" laneChangedFrom="0" laneChangedTo="0"/>
        <edge id="-1774" sampledSeconds="810.56" traveltime="14.04" density="0.52" occupancy="0.26" waitingTime="1.00" speed="11.12" departed="2" arrived="2" entered="54" left="54" laneChangedFrom="0" laneChangedTo="0"/>
        <edge id="-1775" sampledSeconds="1317.43" traveltime="16.97" density="0.60" occupancy="0.30" waitingTime="0.00" speed="12.86" departed="4" arrived="5" entered="72" left="71" laneChangedFrom="0" laneChangedTo="0"/>
        <edge id="-1783" sampledSeconds="441.50" traveltime="17.31" density="0.20" occupancy="0.10" waitingTime="0.00" speed="12.60" departed="2" arrived="4" entered="23" left="21" laneChangedFrom="0" laneChangedTo="0"/>
        <edge id="-1797" sampledSeconds="382.35" traveltime="18.77" density="0.18" occupancy="0.09" waitingTime="0.00" speed="11.60" departed="3" arrived="5" entered="17" left="15" laneChangedFrom="0" laneChangedTo="0"/>
        <edge id="-1798" sampledSeconds="279.18" traveltime="16.12" density="0.16" occupancy="0.08" waitingTime="1.00" speed="10.95" departed="5" arrived="7" entered="12" left="10" laneChangedFrom="0" laneChangedTo="0"/>
        <edge id="-1882" sampledSeconds="1984.77" traveltime="17.67" density="0.86" occupancy="0.43" waitingTime="0.00" speed="13.13" departed="1" arrived="2" entered="109" left="108" laneChangedFrom="0" laneChangedTo="0"/>
        <edge id="-1883" sampledSeconds="732.76" traveltime="8.37" density="0.80" occupancy="0.40" waitingTime="0.00" speed="10.89" departed="2" arrived="4" entered="81" left="79" laneChangedFrom="0" laneChangedTo="0"/>
        <edge id="-1891" sampledSeconds="1177.21" traveltime="15.98" density="0.57" occupancy="0.29" waitingTime="0.00" speed="12.92" departed="4" arrived="2" entered="68" left="70" laneChangedFrom="0" laneChangedTo="0"/>
        <edge id="-1895" sampledSeconds="142.82" traveltime="20.10" density="0.07" occupancy="0.04" waitingTime="16.00" speed="9.85" departed="2" arrived="3" entered="5" left="4" laneChangedFrom="0" laneChangedTo="0"/>
        <edge id="-19" sampledSeconds="1501.81" traveltime="19.00" density="0.82" occupancy="0.41" waitingTime="98.00" speed="9.61" departed="1" arrived="4" entered="76" left="73" laneChangedFrom="0" laneChangedTo="0"/>
        <edge id="-1919" sampledSeconds="260.99" traveltime="12.70" density="0.17" occupancy="0.08" waitingTime="0.00" speed="12.21" departed="3" arrived="0" entered="17" left="20" laneChangedFrom="0" laneChangedTo="0"/>
        <edge id="-1930" sampledSeconds="1463.28" traveltime="13.20" density="1.07" occupancy="0.54" waitingTime="16.00" speed="10.32" departed="1" arrived="7" entered="106" left="100" laneChangedFrom="0" laneChangedTo="0"/>
        <edge id="-1935" sampledSeconds="1368.99" traveltime="19.71" density="0.60" occupancy="0.30" waitingTime="0.00" speed="11.61" departed="2" arrived="3" entered="66" left="65" laneChangedFrom="0" laneChangedTo="0"/>
        <edge id="-1941" sampledSeconds="130.20" traveltime="10.50" density="0.10" occupancy="0.05" waitingTime="0.00" speed="11.97" departed="2" arrived="3" entered="10" left="9" laneChangedFrom="0" laneChangedTo="0"/>
        <edge id="-1942" sampledSeconds="891.05" traveltime="13.56" density="0.51" occupancy="0.25" waitingTime="0.00" speed="12.97" departed="3" arrived="5" entered="61" left="59" laneChangedFrom="0" laneChangedTo="0"/>
        <edge id="-1944" sampledSeconds="164.61" traveltime="14.63" density="0.12" occupancy="0.06" waitingTime="6.00" speed="9.45" departed="4" arrived="1" entered="7" left="10" laneChangedFrom="0" laneChangedTo="0"/>
        <edge id="-1950" sampledSeconds="662.48" traveltime="12.61" density="0.42" occupancy="0.21" waitingTime="2.00" speed="12.49" departed="2" arrived="3" entered="49" left="48" laneChangedFrom="0" laneChangedTo="0"/>
        <edge id="-2006" sampledSeconds="201.71" traveltime="15.13" density="0.12" occupancy="0.06" waitingTime="0.00" speed="11.12" departed="1" arrived="3" entered="12" left="10" laneChangedFrom="0" laneChangedTo="0"/>
        <edge id="-210" sampledSeconds="730.26" traveltime="17.63" density="0.55" occupancy="0.28" waitingTime="150.00" speed="7.46" departed="2" arrived="4" entered="38" left="36" laneChangedFrom="0" laneChangedTo="0"/>
        <edge id="-2110" sampledSeconds="635.06" traveltime="15.89" density="0.37" occupancy="0.18" waitingTime="11.00" speed="10.90" departed="4" arrived="4" entered="35" left="35" laneChangedFrom="0" laneChangedTo="0"/>
        <edge id="-2112" sampledSeconds="328.98" traveltime="17.87" density="0.17" occupancy="0.08" waitingTime="2.00" speed="11.14" departed="1" arrived="2" entered="17" left="16" laneChangedFrom="0" laneChangedTo="0"/>
        <edge id="-2120" sampledSeconds="303.47" traveltime="12.80" density="0.19" occupancy="0.10" waitingTime="0.00" speed="12.25" departed="0" arrived="3" entered="23" left="20" laneChangedFrom="0" laneChangedTo="0"/>
        <edge id="-2128" sampledSeconds="336.37" traveltime="13.62" density="0.19" occupancy="0.10" waitingTime="0.00" speed="12.74" departed="0" arrived="1" entered="24" left="23" laneChangedFrom="0" laneChangedTo="0"/>
        <edge id="-2149" sampledSeconds="408.98" traveltime="10.12" density="0.32" occupancy="0.16" waitingTime="0.00" speed="12.69" departed="3" arrived="0" entered="36" left="39" laneChangedFrom="0" laneChangedTo="0"/>
        <edge id="-2158" sampledSeconds="2123.79" traveltime="18.54" density="0.99" occupancy="0.49" waitingTime="0.00" speed="11.63" departed="2" arrived="2" entered="110" left="110" laneChangedFrom="0" laneChangedTo="0"/>
        <edge id="-2166" sampledSeconds="563.46" traveltime="18.46" density="0.24" occupancy="0.12" waitingTime="0.00" speed="12.55" departed="6" arrived="4" entered="24" left="26" laneChangedFrom="0" laneChangedTo="0"/>
        <edge id="-2168" sampledSeconds="2097.22" traveltime="18.13" density="1.00" occupancy="0.50" waitingTime="1.00" speed="11.61" departed="1" arrived="0" entered="112" left="113" laneChangedFrom="0" laneChangedTo="0"/>
        <edge id="-2171" sampledSeconds="662.28" traveltime="14.72" density="0.35" occupancy="0.18" waitingTime="0.00" speed="12.71" departed="6" arrived="4" entered="38" left="40" laneChangedFrom="0" laneChangedTo="0"/>
        <edge id="-2173" sampledSeconds="779.75" traveltime="19.60" density="0.36" occupancy="0.18" waitingTime="4.00" speed="11.13" departed="5" arrived="5" entered="34" left="34" laneChangedFrom="0" laneChangedTo="0"/>
        <edge id="-2183" sampledSeconds="198.19" traveltime="11.14" density="0.19" occupancy="0.09" waitingTime="9.00" speed="9.39" departed="2" arrived="4" entered="15" left="13" laneChangedFrom="0" laneChangedTo="0"/>
        <edge id="-2185" sampledSeconds="875.00" traveltime="15.84" density="0.42" occupancy="0.21" waitingTime="0.00" speed="13.00" departed="3" arrived="5" entered="51" left="49" laneChangedFrom="0" laneChangedTo="0"/>
        <edge id="-2186" sampledSeconds="1115.15" traveltime="18.21" density="0.48" occupancy="0.24" waitingTime="0.00" speed="12.80" departed="2" arrived="4" entered="58" left="56" laneChangedFrom="0" laneChangedTo="0"/>
        <edge id="-2188" sampledSeconds="102.03" traveltime="11.08" density="0.08" occupancy="0.04" waitingTime="0.00" speed="12.13" departed="3" arrived="6" entered="6" left="3" laneChangedFrom="0" laneChangedTo="0"/>
        <edge id="-2194" sampledSeconds="589.06" traveltime="13.29" density="0.40" occupancy="0.20" waitingTime="0.00" speed="10.96" departed="4" arrived="4" entered="39" left="39" laneChangedFrom="0" laneChangedTo="0"/>
        <edge id="-2198" sampledSeconds="183.97" traveltime="20.19" density="0.08" occupancy="0.04" waitingTime="0.00" speed="10.84" departed="4" arrived="2" entered="5" left="7" laneChangedFrom="0" laneChangedTo="0"/>
        <edge id="-2200" sampledSeconds="2779.67" traveltime="15.32" density="1.42" occupancy="0.71" waitingTime="11.00" speed="12.77" departed="3" arrived="8" entered="174" left="169" laneChangedFrom="0" laneChangedTo="0"/>
        <edge id="-2201" sampledSeconds="318.09" traveltime="17.32" density="0.16" occupancy="0.08" waitingTime="0.00" speed="11.56" departed="3" arrived="5" entered="15" left="13" laneChangedFrom="0" laneChangedTo="0"/>
        <edge id="-2202" sampledSeconds="1244.80" traveltime="13.99" density="0.89" occupancy="0.45" waitingTime="30.00" speed="9.99" departed="3" arrived="4" entered="83" left="82" laneChangedFrom="0" laneChangedTo="0"/>
        <edge id="-2206" sampledSeconds="1967.72" traveltime="18.19" density="0.84" occupancy="0.42" waitingTime="0.00" speed="12.95" departed="4" arrived="6" entered="102" left="100" laneChangedFrom="0" laneChangedTo="0"/>
        <edge id="-2209" sampledSeconds="125.40" traveltime="9.31" density="0.11" occupancy="0.06" waitingTime="0.00" speed="12.07" departed="2" arrived="4" entered="11" left="9" laneChangedFrom="0" laneChangedTo="0"/>
        <edge id="-2210" sampledSeconds="292.68" traveltime="20.65" density="0.13" occupancy="0.06" waitingTime="0.00" speed="11.19" departed="6" arrived="2" entered="8" left="12" laneChangedFrom="0" laneChangedTo="0"/>
        <edge id="-2278" sampledSeconds="344.82" traveltime="10.08" density="0.28" occupancy="0.14" waitingTime="0.00" speed="12.36" departed="3" arrived="1" entered="30" left="32" laneChangedFrom="0" laneChangedTo="0"/>
        <edge id="-2285" sampledSeconds="141.58" traveltime="10.66" density="0.12" occupancy="0.06" waitingTime="0.00" speed="11.39" departed="5" arrived="4" entered="8" left="9" laneChangedFrom="0" laneChangedTo="0"/>
        <edge id="-2289" sampledSeconds="522.71" traveltime="15.94" density="0.29" occupancy="0.14" waitingTime="0.00" speed="11.40" departed="2" arrived="6" entered="30" left="26" laneChangedFrom="0" laneChangedTo="0"/>
        <edge id="-2291" sampledSeconds="156.97" traveltime="10.95" density="0.11" occupancy="0.06" waitingTime="0.00" speed="12.71" departed="2" arrived="6" entered="12" left="8" laneChangedFrom="0" laneChangedTo="0"/>
        <edge id="-2300" sampledSeconds="259.63" traveltime="19.80" density="0.11" occupancy="0.05" waitingTime="0.00" speed="12.14" departed="7" arrived="3" entered="6" left="10" laneChangedFrom="0" laneChangedTo="0"/>
        <edge id="-2412" sampledSeconds="424.27" traveltime="8.81" density="0.46" occupancy="0.23" waitingTime="0.00" speed="10.51" departed="6" arrived="7" entered="40" left="39" laneChangedFrom="0" laneChangedTo="0"/>
        <edge id="-2421" sampledSeconds="494.88" traveltime="17.98" density="0.21" occupancy="0.11" waitingTime="0.00" speed="13.03" departed="1" arrived="4" entered="26" left="23" laneChangedFrom="0" laneChangedTo="0"/>
        <edge id="-2423" sampledSeconds="919.86" traveltime="8.56" density="0.85" occupancy="0.43" waitingTime="0.00" speed="12.62" departed="5" arrived="1" entered="98" left="102" laneChangedFrom="0" laneChangedTo="0"/>
        <edge id="-2425" sampledSeconds="210.16" traveltime="18.79" density="0.10" occupancy="0.05" waitingTime="0.00" speed="11.55" departed="3" arrived="1" entered="8" left="10" laneChangedFrom="0" laneChangedTo="0"/>
        <edge id="-2439" sampledSeconds="436.68" traveltime="10.74" density="0.42" occupancy="0.21" waitingTime="8.00" speed="9.62" departed="4" arrived="2" entered="35" left="37" laneChangedFrom="0" laneChangedTo="0"/>
        <edge id="-2447" sampledSeconds="494.87" traveltime="12.03" density="0.34" occupancy="0.17" waitingTime="0.00" speed="12.11" departed="5" arrived="9" entered="35" left="31" laneChangedFrom="0" laneChangedTo="0"/>
        <edge id="-2449" sampledSeconds="491.53" traveltime="9.99" density="0.48" occupancy="0.24" waitingTime="0.00" speed="10.26" departed="2" arrived="4" entered="45" left="43" laneChangedFrom="0" laneChangedTo="0"/>
        <edge id="-2453" sampledSeconds="287.80" traveltime="13.94" density="0.21" occupancy="0.10" waitingTime="3.00" speed="10.00" departed="2" arrived="1" entered="18" left="19" laneChangedFrom="0" laneChangedTo="0"/>
        <edge id="-2477" sampledSeconds="134.99" traveltime="10.07" density="0.11" occupancy="0.05" waitingTime="0.00" speed="12.22" departed="3" arrived="3" entered="10" left="10" laneChangedFrom="0" laneChangedTo="0"/>
        <edge id="-2482" sampledSeconds="731.20" traveltime="17.48" density="0.32" occupancy="0.16" waitingTime="0.00" speed="12.87" departed="3" arrived="7" entered="38" left="34" laneChangedFrom="0" laneChangedTo="0"/>
        <edge id="-2486" sampledSeconds="179.27" traveltime="15.99" density="0.11" occupancy="0.06" waitingTime="0.00" speed="10.11" departed="4" arrived="1" entered="7" left="10" laneChangedFrom="0" laneChangedTo="0"/>
        <edge id="-2494" sampledSeconds="312.34" traveltime="11.68" density="0.22" occupancy="0.11" waitingTime="0.00" speed="12.42" departed="4" arrived="3" entered="22" left="23" laneChangedFrom="0" laneChangedTo="0"/>
        <edge id="-25" sampledSeconds="3506.77" traveltime="16.63" density="1.71" occupancy="0.86" waitingTime="3.00" speed="12.30" departed="4" arrived="3" entered="202" left="203" laneChangedFrom="0" laneChangedTo="0"/>
        <edge id="-2502" sampledSeconds="1550.16" traveltime="20.54" density="0.66" occupancy="0.33" waitingTime="11.00" speed="11.36" departed="5" arrived="4" entered="69" left="70" laneChangedFrom="0" laneChangedTo="0"/>
        <edge id="-2607" sampledSeconds="284.69" traveltime="12.67" density="0.21" occupancy="0.10" waitingTime="0.00" speed="10.75" departed="8" arrived="4" entered="14" left="18" laneChangedFrom="0" laneChangedTo="0"/>
        <edge id="-2714" sampledSeconds="814.73" traveltime="17.37" density="0.36" occupancy="0.18" waitingTime="0.00" speed="12.91" departed="4" arrived="5" entered="42" left="41" laneChangedFrom="0" laneChangedTo="0"/>
        <edge id="-2724" sampledSeconds="247.87" traveltime="20.47" density="0.11" occupancy="0.05" waitingTime="0.00" speed="11.06" departed="7" arrived="2" entered="5" left="10" laneChangedFrom="0" laneChangedTo="0"/>
        <edge id="-2732" sampledSeconds="207.82" traveltime="14.46" density="0.13" occupancy="0.06" waitingTime="0.00" speed="11.17" departed="2" arrived="2" entered="12" left="12" laneChangedFrom="0" laneChangedTo="0"/>
        <edge id="-2756" sampledSeconds="311.53" traveltime="15.17" density="0.19" occupancy="0.10" waitingTime="4.00" speed="10.60" departed="2" arrived="2" entered="18" left="18" laneChangedFrom="0" laneChangedTo="0"/>
        <edge id="-2766" sampledSeconds="206.95" traveltime="14.59" density="0.12" occupancy="0.06" waitingTime="0.00" speed="11.79" departed="6" arrived="6" entered="8" left="8" laneChangedFrom="0" laneChangedTo="0"/>
        <edge id="-2872" sampledSeconds="339.51" traveltime="16.70" density="0.19" occupancy="0.09" waitingTime="0.00" speed="10.99" departed="7" arrived="4" entered="13" left="16" laneChangedFrom="0" laneChangedTo="0"/>
        <edge id="-2873" sampledSeconds="560.31" traveltime="14.41" density="0.30" occupancy="0.15" waitingTime="0.00" speed="12.85" departed="4" arrived="5" entered="34" left="33" laneChangedFrom="0" laneChangedTo="0"/>
        <edge id="-2876" sampledSeconds="239.44" traveltime="9.63" density="0.20" occupancy="0.10" waitingTime="0.00" speed="12.18" departed="3" arrived="4" entered="21" left="20" laneChangedFrom="0" laneChangedTo="0"/>
        <edge id="-2881" sampledSeconds="209.68" traveltime="18.72" density="0.09" occupancy="0.05" waitingTime="0.00" speed="12.05" departed="1" arrived="6" entered="10" left="5" laneChangedFrom="0" laneChangedTo="0"/>
        <edge id="-2893" sampledSeconds="283.95" traveltime="15.42" density="0.14" occupancy="0.07" waitingTime="0.00" speed="12.72" departed="1" arrived="2" entered="17" left="16" laneChangedFrom="0" laneChangedTo="0"/>
        <edge id="-2895" sampledSeconds="887.90" traveltime="16.03" density="0.53" occupancy="0.26" waitingTime="22.00" speed="10.51" departed="5" arrived="6" entered="49" left="48" laneChangedFrom="0" laneChangedTo="0"/>
        <edge id="-2903" sampledSeconds="474.23" traveltime="10.20" density="0.37" occupancy="0.19" waitingTime="0.00" speed="12.42" departed="6" arrived="6" entered="39" left="39" laneChangedFrom="0" laneChangedTo="0"/>